# vtk DataFile Version 3.0
vtk output
ASCII
DATASET POLYDATA
POINTS 8760 float
-9.28423 0.69899 30.5702 -9.38909 0.723068 30.0823 -9.4133 0.74585 29.5834
-9.39648 0.780411 29.0861 -9.31431 0.818611 28.5951 -9.16801 0.837402 28.1174
-8.98991 0.843483 27.6502 -8.80237 0.838829 27.187 -8.59847 0.794395 26.7326
-8.38691 0.740677 26.283 -8.16228 0.66021 25.8441 -7.92096 0.525169 25.4275
-7.66532 0.403297 25.0158 -7.36829 0.320869 24.6221 -7.05901 0.25 24.236
-6.73872 0.188004 23.8571 -6.39587 0.148026 23.4957 -6.04253 0.139977 23.1427
-5.68569 0.152 22.7927 -5.32257 0.202003 22.4526 -4.94025 0.266685 22.1375
-4.53724 0.322388 21.8472 -4.12489 0.37397 21.5692 -3.70131 0.431587 21.31
-3.27274 0.498436 21.0614 -2.8421 0.571014 20.8179 -2.40598 0.653381 20.5877
-1.96503 0.73835 20.3679 -1.517 0.826546 20.1645 -1.0651 0.916557 19.9704
-0.596817 0.996094 19.8151 -0.117477 1.06498 19.6922 0.367332 1.12759 19.5872
0.861374 1.18802 19.546 1.35624 1.25195 19.5584 1.85001 1.31863 19.6001
2.34444 1.35786 19.6621 2.83994 1.3727 19.7263 3.33563 1.37547 19.7917
3.82243 1.36837 19.904 4.30013 1.35957 20.0505 4.77299 1.35012 20.2128
5.23569 1.33107 20.4011 5.69221 1.3015 20.6027 6.14523 1.26586 20.8112
6.5904 1.22056 21.0343 7.03206 1.19406 21.2671 7.47422 1.18608 21.5001
7.91697 1.18811 21.7325 8.35006 1.20743 21.9814 8.77451 1.2496 22.2417
9.19269 1.30967 22.5092 9.56281 1.46519 22.8072 9.93031 1.62519 23.1061
10.219 1.90986 23.3871 10.4165 2.29063 23.6341 10.5685 2.7097 23.8606
10.6747 3.15205 24.068 10.7982 3.58262 24.2888 10.962 3.98397 24.5365
11.1591 4.35202 24.8107 11.3688 4.70419 25.0971 11.5949 5.03012 25.4014
11.8241 5.34994 25.7098 12.0935 5.61855 26.0343 12.4254 5.82278 26.3464
12.7756 6.00321 26.6543 13.1471 6.12592 26.9651 13.5206 6.23227 27.28
13.8902 6.329 27.6026 14.255 6.42589 27.9305 14.6096 6.51911 28.2703
14.9576 6.61112 28.6173 15.2913 6.68627 28.982 15.6144 6.75027 29.3581
15.9233 6.81918 29.745 16.2231 6.89444 30.138 16.4846 6.96824 30.5574
16.7327 7.0405 30.9855 16.9419 7.15378 31.4243 17.1384 7.29763 31.861
-8.69282 14.9682 27.2951 -8.59196 14.5782 27.5912 -8.50107 14.1762 27.874
-8.43051 13.7596 28.1407 -8.39075 13.3182 28.3721 -8.34133 12.8675 28.5829
-8.29162 12.4146 28.7887 -8.23943 11.9516 28.9703 -8.1843 11.4875 29.1479
-8.1221 11.0179 29.3073 -8.0526 10.539 29.4311 -7.97323 10.0529 29.5171
-7.89199 9.56669 29.6007 -7.80809 9.0807 29.683 -7.73431 8.59364 29.7686
-7.66617 8.10576 29.854 -7.6076 7.61646 29.9385 -7.56155 7.12161 29.9933
-7.52718 6.62296 30.0064 -7.50922 6.12451 29.9715 -7.51083 5.62949 29.9011
-7.52077 5.13716 29.8164 -7.54691 4.65134 29.7023 -7.60467 4.18546 29.5302
-7.67039 3.73337 29.3298 -7.73777 3.31533 29.0666 -7.75864 2.95316 28.7225
-7.76043 2.61087 28.358 -7.74979 2.28517 27.9795 -7.71188 1.98602 27.5811
-7.64996 1.70218 27.1743 -7.56142 1.42973 26.7645 -7.45799 1.15378 26.3605
-7.34342 0.872375 25.9637 -7.2108 0.570862 25.5882 -7.05901 0.25 25.236
-6.90721 -0.0708618 24.8839 -6.74414 -0.393257 24.5383 -6.58808 -0.731079 24.2046
-6.43831 -1.07951 23.8788 -6.28249 -1.43671 23.5657 -6.11912 -1.79088 23.2529
-5.93815 -2.14097 22.9452 -4.10417 16.892 28.8324 -4.33215 16.4472 28.8448
-4.5299 15.9884 28.8644 -4.71976 15.5264 28.8864 -4.90487 15.0626 28.9104
-5.08623 14.5974 28.9364 -5.26192 14.13 28.9625 -5.42489 13.6581 28.9874
-5.57079 13.1806 29.0142 -5.71278 12.7021 29.0437 -5.84694 12.2216 29.0775
-5.96812 11.738 29.1156 -6.07275 11.2509 29.1572 -6.16795 10.7619 29.1996
-6.23672 10.2683 29.2398 -6.29637 9.77348 29.2784 -6.33912 9.27673 29.3153
-6.37206 8.77896 29.349 -6.41234 8.28152 29.3784 -6.4667 7.78495 29.3981
-6.53377 7.28947 29.4006 -6.59934 6.79387 29.3964 -6.66318 6.29848 29.3758
-6.73101 5.80667 29.3165 -6.80198 5.31791 29.2407 -6.87678 4.83567 29.1329
-6.94904 4.36374 28.9844 -7.01698 3.89634 28.8211 -7.07219 3.43906 28.6274
-7.09385 3.00078 28.3877 -7.10764 2.57941 28.1189 -7.11782 2.166 27.8382
-7.11971 1.76648 27.5378 -7.1116 1.3808 27.2197 -7.10197 1.00052 26.8952
-7.08682 0.623611 26.5671 -7.05901 0.25 26.236 -7.02448 -0.123856 25.9058
-6.96957 -0.506828 25.5892 -6.91158 -0.894829 25.2792 -6.85985 -1.28682 24.9732
-6.81022 -1.67952 24.6677 -6.76755 -2.08845 24.3836 -6.73643 -2.51726 24.1292
-6.71299 -2.95672 23.8919 -6.70267 -3.41238 23.6863 -6.71615 -3.88457 23.5234
-6.74651 -4.3643 23.3866 -6.78432 -4.84691 23.2615 -6.83414 -5.33588 23.1706
-6.88826 -5.82847 23.1055 -6.94324 -6.32271 23.0535 -6.98579 -6.82049 23.042
-7.00554 -7.31917 23.0626 -7.01025 -7.81768 23.1009 -7.02276 -8.3136 23.1627
-7.05147 -8.80806 23.2307 -7.08794 -9.3017 23.3013 -7.1329 -9.79326 23.3809
-7.18336 -10.2832 23.4668 -7.23745 -10.7723 23.5557 -7.2979 -11.2624 23.634
-7.35687 -11.7541 23.7021 -7.41427 -12.2468 23.7656 -7.46265 -12.7407 23.8263
-7.50783 -13.2349 23.887 -7.54659 -13.7299 23.9461 -7.60018 -14.2239 24.0021
-7.71729 -14.7069 24.0524 -7.85371 -15.1852 24.1031 -8.01439 -15.6571 24.1404
-8.18688 -16.1259 24.1573 -8.36771 -16.592 24.1626 -8.56787 -17.0501 24.1536
-8.76015 -17.5114 24.1621 -8.93571 -17.9782 24.1939 -9.10153 -18.4478 24.2376
-9.29562 -18.9062 24.2837 -9.5024 -19.3579 24.3396 -9.71294 -19.807 24.4027
-9.94287 -20.2464 24.4665 -10.179 -20.6816 24.5355 -10.4159 -21.1157 24.6092
-10.6497 -21.549 24.6967 -10.8765 -21.9796 24.8106 -11.0837 -22.4116 24.952
-11.2779 -22.8449 25.1087 -11.4194 -23.2789 25.3112 -11.5404 -23.7126 25.5286
-11.6164 -24.1412 25.7746 -11.6483 -24.5583 26.048 -11.652 -24.9683 26.3338
-11.6279 -25.3715 26.6281 -11.5899 -25.7714 26.9258 -11.5305 -26.1639 27.2298
-11.4421 -26.5377 27.5496 -11.3323 -26.9029 27.8728 -11.2117 -27.2651 28.1958
-11.0733 -27.625 28.514 -10.9097 -27.9762 28.8299 -10.7268 -28.3105 29.1532
-10.5357 -28.6363 29.4809 -10.3535 -28.9523 29.8229 -10.202 -29.2692 30.1787
-10.0358 -29.5715 30.5402 -9.84274 -29.856 30.903 -9.63827 -30.1317 31.2666
-9.42158 -30.3956 31.6318 -9.17628 -30.6348 31.9954 -8.91534 -30.8606 32.3573
-8.61774 -31.0596 32.7062 -8.3161 -31.2564 33.0531 -8.02331 -31.4649 33.4004
-7.73746 -31.6828 33.748 -7.45609 -31.9076 34.0949 -7.15511 -32.1238 34.4302
-6.84234 -32.3333 34.7593 -6.49199 -32.5152 35.0657 -6.11875 -32.6784 35.3551
-5.73416 -32.8313 35.6357 -5.33459 -32.9799 35.8968 -4.93105 -33.1286 36.1518
-4.53053 -33.2961 36.3997 -4.13328 -33.4729 36.6465 -3.71788 -33.6325 36.8742
-3.29079 -33.7811 37.0873 -2.85826 -33.9249 37.2929 -2.41222 -34.0602 37.4734
-1.96075 -34.1913 37.6437 -1.49431 -34.3043 37.7839 -1.01277 -34.3924 37.8851
-0.526062 -34.4635 37.9742 -0.0368958 -34.5254 38.0572 0.456032 -34.5683 38.1291
0.944412 -34.6206 38.2218 1.42029 -34.6955 38.3517 -9.51915 0.728279 30.9989
-9.61169 0.831154 30.5191 -9.67968 0.902512 30.0293 -9.65649 0.984001 29.5365
-9.5958 1.07291 29.0494 -9.47456 1.16485 28.5738 -9.29629 1.23615 28.1121
-9.10265 1.30235 27.6562 -8.8764 1.34392 27.2123 -8.64451 1.36253 26.7697
-8.41008 1.37141 26.3283 -8.17006 1.3577 25.8901 -7.91735 1.30328 25.4621
-7.65327 1.26026 25.04 -7.35957 1.25082 24.6354 -7.05901 1.25 24.236
-6.752 1.25694 23.8414 -6.42833 1.27483 23.4609 -6.08997 1.3059 23.0944
-5.74433 1.34599 22.7353 -5.38579 1.40194 22.3914 -4.99958 1.45345 22.0785
-4.59365 1.49593 21.7901 -4.17926 1.53458 21.513 -3.75738 1.59135 21.2508
-3.33401 1.65555 20.9927 -2.90807 1.73454 20.743 -2.47476 1.82214 20.5095
-2.03417 1.90912 20.2899 -1.58501 1.99493 20.088 -1.13139 2.07995 19.8956
-0.662033 2.15585 19.7417 -0.182663 2.22681 19.6198 0.301414 2.29571 19.5153
0.79184 2.36554 19.4475 1.2856 2.44025 19.4466 1.7788 2.51855 19.4715
2.27013 2.58997 19.5306 2.76022 2.63445 19.6181 3.2495 2.66972 19.7149
3.73375 2.67845 19.8385 4.21417 2.66982 19.9764 4.69265 2.65267 20.1205
5.16216 2.61504 20.2878 5.62391 2.56535 20.4727 6.08163 2.50948 20.666
6.53005 2.44582 20.8778 6.97669 2.38388 21.0938 7.42007 2.33826 21.3203
7.86277 2.30006 21.5495 8.29735 2.27638 21.7955 8.72471 2.25998 22.0544
9.14803 2.24712 22.3202 9.55666 2.24392 22.6083 9.94343 2.26643 22.9241
10.3153 2.33369 23.2496 10.6759 2.43374 23.5812 10.955 2.68015 23.9128
11.1969 2.97157 24.2392 11.4526 3.21307 24.5946 11.7004 3.45798 24.9529
11.9272 3.72699 25.3078 12.1428 4.00888 25.6601 12.3787 4.27957 26.0075
12.6317 4.53525 26.3547 12.9375 4.7489 26.6869 13.2608 4.94563 27.0137
13.6045 5.1175 27.3336 13.9484 5.26977 27.663 14.285 5.41551 28.0027
14.6091 5.55838 28.3555 14.9247 5.70275 28.7154 15.2373 5.81342 29.0896
15.5477 5.88691 29.4746 15.8461 5.95916 29.869 16.1363 6.03662 30.2688
16.3809 6.11047 30.698 16.605 6.18599 31.1385 16.7852 6.27439 31.5965
16.9398 6.35924 32.064 17.0972 6.39858 32.5362 -7.87532 4.20432 30.4883
-7.97089 3.74374 30.3278 -8.10676 3.34293 30.0713 -8.21389 3.06824 29.6675
-8.24355 2.86484 29.2117 -8.24068 2.68706 28.7454 -8.16828 2.52417 28.2783
-8.07373 2.36942 27.8127 -7.95016 2.20823 27.356 -7.80952 2.02179 26.9139
-7.65861 1.84563 26.4711 -7.47855 1.67908 26.0354 -7.27737 1.4729 25.6267
-7.05901 1.25 25.236 -6.8304 1.03236 24.8484 -6.58807 0.813957 24.4696
-6.34647 0.575012 24.1032 -6.11021 0.318802 23.7447 -5.85193 0.0779495 23.3907
-5.52346 -0.0435486 23.0339 -5.15594 -0.028923 22.6967 -4.78352 0.0154877 22.366
-4.39629 0.0798111 22.0563 -3.98187 0.131241 21.7815 -3.55805 0.185143 21.5219
-3.12702 0.247322 21.2764 -2.69286 0.315056 21.0379 -2.26249 0.391525 20.7951
-1.82697 0.473061 20.5636 -1.38799 0.556396 20.3392 -0.932076 0.63839 20.1516
-0.464111 0.713631 19.9934 0.00976562 0.784882 19.8507 0.498665 0.846008 19.7685
0.992867 0.908478 19.7347 1.48676 0.974792 19.7599 1.97864 1.0441 19.8169
2.47302 1.07731 19.8825 2.96769 1.08453 19.9537 3.4621 1.07857 20.028
3.94452 1.0689 20.1579 4.41679 1.059 20.321 4.88361 1.04964 20.4998
5.33701 1.02471 20.7087 5.7763 0.977898 20.9419 6.20494 0.915192 21.1915
6.61989 0.866722 21.4658 7.03591 0.852806 21.7422 7.44794 0.891327 22.0207
7.85586 0.963257 22.3007 -0.569557 20.8008 36.2335 -0.91922 21.0861 36.4487
-1.27869 21.3736 36.643 -1.66364 21.6698 36.7615 -2.05199 21.9723 36.8432
-2.44321 22.2819 36.8697 -2.83242 22.5953 36.8538 -3.23198 22.8944 36.8236
[...]
CELL_DATA 54
FIELD FieldData 2
CumulativeValue 1 54 double
2040 0 1530 255 1785 1785 765 0 255
2040 4080 2295 0 3060 3825 0 3060 4590
3060 3060 4335 3315 5610 4590 3060 1530 4335
1020 0 0 0 1530 0 0 510 1785
510 1275 0 0 0 1785 0 0 765
0 765 1530 0 0 0 1275 1530 1275

AverageValue 1 54 double
25.1852 0 11.25 3.14815 35.7 9.01515 9.32927 0 1.21429
9.3578 18.8018 16.049 0 21.3986 21.25 0 19.2453 25.082
19.2453 13.5398 21.3547 21.526 24.7137 17.2556 25.2893 9 16.8023
5.45455 0 0 0 9.10714 0 0 2.61538 10.6886
2.83333 7.77439 0 0 0 10.6886 0 0 3.92308
0 4.39655 8.94737 0 0 0 5.82192 7.08333 6.71053

POINT_DATA 8760
TENSORS tensors float
0.000467483 7.68451e-05 9.51451e-05 7.68451e-05 0.000723328 -2.75307e-05 9.51451e-05 -2.75307e-05 0.000814635
0.000471347 8.13958e-05 7.05125e-05 8.13958e-05 0.000661325 -1.84503e-05 7.05125e-05 -1.84503e-05 0.000815917
0.000489659 9.11642e-05 2.1386e-05 9.11642e-05 0.000635342 -1.39774e-05 2.1386e-05 -1.39774e-05 0.000842843
0.000510118 0.000102683 -3.11149e-05 0.000102683 0.000618056 -8.69568e-06 -3.11149e-05 -8.69568e-06 0.000872658
0.000527289 0.000116608 -7.82599e-05 0.000116608 0.000607529 5.12247e-06 -7.82599e-05 5.12247e-06 0.000901062
0.000535831 0.00011761 -0.00012175 0.00011761 0.000583467 2.1657e-05 -0.00012175 2.1657e-05 0.000912086
0.0005424 0.000109692 -0.00016534 0.000109692 0.000556305 3.63041e-05 -0.00016534 3.63041e-05 0.000917287
0.000544428 9.38544e-05 -0.000197667 9.38544e-05 0.000550355 5.78444e-05 -0.000197667 5.78444e-05 0.00091582
0.000550028 7.53452e-05 -0.000210333 7.53452e-05 0.000559836 7.70795e-05 -0.000210333 7.70795e-05 0.000900398
0.000565759 5.06019e-05 -0.000217246 5.06019e-05 0.000565164 8.87026e-05 -0.000217246 8.87026e-05 0.000876283
0.000580972 1.8302e-05 -0.000222693 1.8302e-05 0.000566261 0.000106795 -0.000222693 0.000106795 0.000849902
0.0005998 -1.37095e-05 -0.000225703 -1.37095e-05 0.000564035 0.000132445 -0.000225703 0.000132445 0.000823411
0.000642123 -3.7705e-06 -0.000246431 -3.7705e-06 0.000532974 0.000130673 -0.000246431 0.000130673 0.000819407
0.000672417 1.08605e-05 -0.000267422 1.08605e-05 0.000512633 0.000115229 -0.000267422 0.000115229 0.0007979
0.000679217 2.40802e-05 -0.000272143 2.40802e-05 0.000523007 9.783e-05 -0.000272143 9.783e-05 0.000750475
0.000667992 3.20244e-05 -0.00026948 3.20244e-05 0.000538242 9.01575e-05 -0.00026948 9.01575e-05 0.000698285
0.000652541 4.43389e-05 -0.00028221 4.43389e-05 0.000531542 7.60843e-05 -0.00028221 7.60843e-05 0.000653844
0.000644222 6.38976e-05 -0.000313123 6.38976e-05 0.000501555 4.96104e-05 -0.000313123 4.96104e-05 0.000635995
0.000658671 7.3392e-05 -0.000342768 7.3392e-05 0.000483945 3.99217e-06 -0.000342768 3.99217e-06 0.000624366
0.000683039 8.0416e-05 -0.000357015 8.0416e-05 0.000486353 -2.1195e-05 -0.000357015 -2.1195e-05 0.000606149
0.000755842 7.394e-05 -0.000355194 7.394e-05 0.000511657 -7.77011e-06 -0.000355194 -7.77011e-06 0.000576142
0.000841885 7.62636e-05 -0.000363332 7.62636e-05 0.000516027 5.42608e-06 -0.000363332 5.42608e-06 0.000558612
0.000926133 9.1268e-05 -0.000360903 9.1268e-05 0.000477532 4.69263e-06 -0.000360903 4.69263e-06 0.000592493
0.000994173 0.000111419 -0.000352714 0.000111419 0.000465994 5.5264e-06 -0.000352714 5.5264e-06 0.000628571
0.00104952 0.000137 -0.000343946 0.000137 0.000479523 7.55392e-06 -0.000343946 7.55392e-06 0.00066097
0.00107794 0.000143703 -0.000321691 0.000143703 0.000500361 -3.20147e-06 -0.000321691 -3.20147e-06 0.000678962
0.00111422 0.000139129 -0.000301842 0.000139129 0.000516183 -1.90518e-05 -0.000301842 -1.90518e-05 0.000707602
0.00116554 0.000143824 -0.000284971 0.000143824 0.000522041 -2.83824e-05 -0.000284971 -2.83824e-05 0.000724607
0.00122789 0.000156218 -0.000270155 0.000156218 0.000519561 -3.30169e-05 -0.000270155 -3.30169e-05 0.000730964
0.00128045 0.000152377 -0.000246733 0.000152377 0.000498921 -2.95924e-05 -0.000246733 -2.95924e-05 0.000712329
0.00132339 0.000137547 -0.00020591 0.000137547 0.000492888 -2.35818e-05 -0.00020591 -2.35818e-05 0.000700946
0.00136 0.000114094 -0.000152552 0.000114094 0.000497805 -1.58622e-05 -0.000152552 -1.58622e-05 0.000694336
0.00139096 0.000104251 -9.26942e-05 0.000104251 0.000554669 8.60056e-07 -9.26942e-05 8.60056e-07 0.000716154
0.00139563 9.55989e-05 -2.53223e-05 9.55989e-05 0.00064284 2.4056e-05 -2.53223e-05 2.4056e-05 0.000756359
0.00138625 8.4736e-05 4.41269e-05 8.4736e-05 0.000743509 4.8624e-05 4.41269e-05 4.8624e-05 0.000802004
0.00139723 5.92407e-05 6.71937e-05 5.92407e-05 0.000776617 5.7464e-05 6.71937e-05 5.7464e-05 0.000819718
0.00142814 2.70675e-05 7.25378e-05 2.70675e-05 0.00080202 5.91988e-05 7.25378e-05 5.91988e-05 0.000841816
0.00147201 -4.61708e-06 7.8953e-05 -4.61708e-06 0.000848764 6.17116e-05 7.8953e-05 6.17116e-05 0.000881584
0.00146267 -1.98031e-05 0.000114709 -1.98031e-05 0.000832835 6.06696e-05 0.000114709 6.06696e-05 0.000890108
0.00142265 -2.71962e-05 0.000155066 -2.71962e-05 0.000811302 5.94323e-05 0.000155066 5.94323e-05 0.00089719
0.00137294 -3.35372e-05 0.000181244 -3.35372e-05 0.0008051 6.10013e-05 0.000181244 6.10013e-05 0.000911075
0.00132482 -3.96808e-05 0.000199887 -3.96808e-05 0.000798809 5.3461e-05 0.000199887 5.3461e-05 0.000897191
0.00125644 -4.46712e-05 0.000209163 -4.46712e-05 0.000787327 3.71951e-05 0.000209163 3.71951e-05 0.000858669
0.00114673 -4.7479e-05 0.000205249 -4.7479e-05 0.000755232 1.94554e-05 0.000205249 1.94554e-05 0.000802466
0.00103267 -4.54618e-05 0.00019564 -4.54618e-05 0.000716801 5.72773e-06 0.00019564 5.72773e-06 0.000746119
0.000989716 -3.48012e-05 0.000199037 -3.48012e-05 0.000696124 5.89246e-06 0.000199037 5.89246e-06 0.000718186
0.00094867 -2.51758e-05 0.000217371 -2.51758e-05 0.00062195 1.35556e-05 0.000217371 1.35556e-05 0.000654775
0.000907985 -1.22998e-05 0.000222145 -1.22998e-05 0.000573749 2.73746e-05 0.000222145 2.73746e-05 0.000600895
0.000854623 -1.3514e-05 0.000230445 -1.3514e-05 0.000563954 4.60178e-05 0.000230445 4.60178e-05 0.000568507
0.000780037 -1.65914e-05 0.000221111 -1.65914e-05 0.000572383 6.3482e-05 0.000221111 6.3482e-05 0.000529625
0.000682991 -2.06641e-05 0.000193399 -2.06641e-05 0.000595223 7.91443e-05 0.000193399 7.91443e-05 0.000483501
0.000597643 -1.74425e-05 0.000180802 -1.74425e-05 0.000608686 8.62708e-05 0.000180802 8.62708e-05 0.00046401
0.00060553 -3.4802e-06 0.000226405 -3.4802e-06 0.000638642 8.43132e-05 0.000226405 8.43132e-05 0.000464701
0.000600528 1.93173e-06 0.000248635 1.93173e-06 0.0006948 9.15094e-05 0.000248635 9.15094e-05 0.000470224
0.000566741 3.46649e-06 0.00024125 3.46649e-06 0.000748135 0.000103209 0.00024125 0.000103209 0.000481063
0.00051128 8.21547e-06 0.000210502 8.21547e-06 0.000782594 0.00011467 0.000210502 0.00011467 0.000494014
0.000451444 1.59804e-05 0.000168768 1.59804e-05 0.000787836 0.00011895 0.000168768 0.00011895 0.000507406
0.000432281 2.26683e-05 0.000150287 2.26683e-05 0.000771468 0.000113683 0.000150287 0.000113683 0.000517278
0.000475686 2.43336e-05 0.000171663 2.43336e-05 0.000753344 0.000109355 0.000171663 0.000109355 0.000523993
0.000497042 2.72463e-05 0.000189519 2.72463e-05 0.000737362 0.000108424 0.000189519 0.000108424 0.000534447
0.000499647 3.55839e-05 0.000201458 3.55839e-05 0.000721911 0.000112475 0.000201458 0.000112475 0.000548737
0.00050401 4.80987e-05 0.000202694 4.80987e-05 0.000710814 0.000117904 0.000202694 0.000117904 0.000568647
0.000513846 6.95844e-05 0.000191827 6.95844e-05 0.0006942 0.000129528 0.000191827 0.000129528 0.000592158
0.000554072 8.9218e-05 0.000189407 8.9218e-05 0.00063706 0.000119803 0.000189407 0.000119803 0.000614851
0.00060733 0.000108635 0.000194483 0.000108635 0.000588716 9.90143e-05 0.000194483 9.90143e-05 0.00062122
0.000667085 0.00011426 0.000215588 0.00011426 0.000566789 7.43864e-05 0.000215588 7.43864e-05 0.000626734
0.000721031 0.000116309 0.000243581 0.000116309 0.000535278 5.61403e-05 0.000243581 5.61403e-05 0.000648978
0.000753607 0.000106955 0.00026784 0.000106955 0.000504065 4.39646e-05 0.00026784 4.39646e-05 0.000677349
0.00077989 9.13848e-05 0.000287644 9.13848e-05 0.000531315 4.97734e-05 0.000287644 4.97734e-05 0.000705977
0.000764178 7.52056e-05 0.000277937 7.52056e-05 0.000595796 4.5636e-05 0.000277937 4.5636e-05 0.000698102
0.000742888 6.11348e-05 0.000271531 6.11348e-05 0.000630657 4.42311e-05 0.000271531 4.42311e-05 0.00070117
0.000713726 4.84938e-05 0.00026774 4.84938e-05 0.000637907 4.56624e-05 0.00026774 4.56624e-05 0.000712964
0.000679289 3.78509e-05 0.000267543 3.78509e-05 0.000607935 4.20897e-05 0.000267543 4.20897e-05 0.000726842
0.000669185 4.05155e-05 0.000247886 4.05155e-05 0.000591223 2.77022e-05 0.000247886 2.77022e-05 0.000733659
0.000655294 4.54097e-05 0.000223443 4.54097e-05 0.000578256 2.24352e-05 0.000223443 2.24352e-05 0.000741458
0.000634238 5.17685e-05 0.000196782 5.17685e-05 0.000565474 2.55711e-05 0.000196782 2.55711e-05 0.000750256
0.000611149 4.94231e-05 0.000174395 4.94231e-05 0.000558388 2.85138e-05 0.000174395 2.85138e-05 0.000763301
0.000586705 3.64393e-05 0.000155349 3.64393e-05 0.000582969 2.65662e-05 0.000155349 2.65662e-05 0.000770932
0.00056524 3.33498e-05 0.00013603 3.33498e-05 0.000621259 2.82109e-05 0.00013603 2.82109e-05 0.000772109
0.000542365 3.98061e-05 0.000115124 3.98061e-05 0.000669323 3.41428e-05 0.000115124 3.41428e-05 0.000764298
0.000528811 4.28541e-05 0.000119822 4.28541e-05 0.00071637 2.63342e-05 0.000119822 2.63342e-05 0.000763666
0.000665127 -5.05192e-05 -2.76722e-05 -5.05192e-05 0.00066714 -0.000117967 -2.76722e-05 -0.000117967 0.000634303
0.00067053 -4.37782e-05 -1.67546e-05 -4.37782e-05 0.000698765 -0.000123166 -1.67546e-05 -0.000123166 0.000637797
0.00067182 -3.38767e-05 -1.01409e-05 -3.38767e-05 0.000718439 -0.000118493 -1.01409e-05 -0.000118493 0.0006346
0.000666761 -2.18851e-05 -8.94469e-06 -2.18851e-05 0.000726297 -0.000105066 -8.94469e-06 -0.000105066 0.000623322
0.000653498 -1.82319e-05 -1.22714e-05 -1.82319e-05 0.000733513 -9.41807e-05 -1.22714e-05 -9.41807e-05 0.000606892
0.000633858 -2.55388e-05 -1.35464e-05 -2.55388e-05 0.000759236 -0.000100369 -1.35464e-05 -0.000100369 0.000597582
0.000613326 -3.13404e-05 -1.79199e-05 -3.13404e-05 0.000780274 -0.000104081 -1.79199e-05 -0.000104081 0.000597657
0.000593721 -3.61123e-05 -2.1911e-05 -3.61123e-05 0.00079483 -9.91608e-05 -2.1911e-05 -9.91608e-05 0.000591292
0.000588018 -3.6496e-05 -2.35036e-05 -3.6496e-05 0.000776631 -8.34203e-05 -2.35036e-05 -8.34203e-05 0.000595528
0.000580245 -3.72392e-05 -2.43279e-05 -3.72392e-05 0.000770664 -6.6319e-05 -2.43279e-05 -6.6319e-05 0.000591206
0.000571339 -3.76187e-05 -2.53034e-05 -3.76187e-05 0.00077346 -4.81001e-05 -2.53034e-05 -4.81001e-05 0.000580818
0.000561567 -4.27871e-05 -4.559e-06 -4.27871e-05 0.00080413 -4.28858e-05 -4.559e-06 -4.28858e-05 0.000580409
0.000553321 -4.87986e-05 1.71258e-05 -4.87986e-05 0.000840951 -4.34537e-05 1.71258e-05 -4.34537e-05 0.000578493
0.000547117 -5.54576e-05 3.76777e-05 -5.54576e-05 0.000883156 -4.97456e-05 3.76777e-05 -4.97456e-05 0.000573661
0.000538462 -4.84073e-05 4.22147e-05 -4.84073e-05 0.000890463 -5.23578e-05 4.22147e-05 -5.23578e-05 0.000572697
0.000529842 -4.0001e-05 4.70468e-05 -4.0001e-05 0.000891397 -5.21857e-05 4.70468e-05 -5.21857e-05 0.000572753
0.000521918 -3.31966e-05 5.5302e-05 -3.31966e-05 0.000892822 -5.04418e-05 5.5302e-05 -5.04418e-05 0.000573276
0.00051527 -2.92952e-05 6.37652e-05 -2.92952e-05 0.000899859 -3.16266e-05 6.37652e-05 -3.16266e-05 0.000567378
0.000507285 -2.5601e-05 6.84449e-05 -2.5601e-05 0.000902898 -4.18557e-06 6.84449e-05 -4.18557e-06 0.000564506
0.000499461 -1.94069e-05 6.91033e-05 -1.94069e-05 0.000901097 2.6089e-05 6.91033e-05 2.6089e-05 0.000566692
0.000490547 -8.11013e-06 6.62782e-05 -8.11013e-06 0.000886211 4.64559e-05 6.62782e-05 4.64559e-05 0.00056452
0.000484556 2.89197e-06 6.3302e-05 2.89197e-06 0.000872911 6.35804e-05 6.3302e-05 6.35804e-05 0.00056325
0.000484709 1.22729e-05 5.96363e-05 1.22729e-05 0.000866702 8.08891e-05 5.96363e-05 8.08891e-05 0.000571457
0.000498478 2.89447e-05 5.26291e-05 2.89447e-05 0.000851702 9.06898e-05 5.26291e-05 9.06898e-05 0.00062564
0.000512636 4.09819e-05 4.01108e-05 4.09819e-05 0.000830419 9.68107e-05 4.01108e-05 9.68107e-05 0.000690684
0.000525382 4.10249e-05 1.93038e-05 4.10249e-05 0.000814266 0.000103851 1.93038e-05 0.000103851 0.000752967
0.000538603 2.85689e-05 -6.14622e-06 2.85689e-05 0.000819157 0.00011815 -6.14622e-06 0.00011815 0.000809072
0.000556797 3.11515e-05 -2.72043e-05 3.11515e-05 0.000832228 0.000133208 -2.72043e-05 0.000133208 0.000849253
0.000556391 3.69515e-05 -5.63042e-05 3.69515e-05 0.000812661 0.000143073 -5.63042e-05 0.000143073 0.000871757
0.000538649 3.66006e-05 -8.56112e-05 3.66006e-05 0.000793919 0.000157587 -8.56112e-05 0.000157587 0.000883312
0.000502059 3.13383e-05 -0.000113496 3.13383e-05 0.000776461 0.00017702 -0.000113496 0.00017702 0.000884489
0.000482576 1.83553e-05 -0.000129556 1.83553e-05 0.000748859 0.000188065 -0.000129556 0.000188065 0.000872758
0.000498338 -2.2131e-06 -0.000130625 -2.2131e-06 0.000720553 0.000200151 -0.000130625 0.000200151 0.000844147
0.00051478 -2.75062e-05 -0.000132553 -2.75062e-05 0.000703656 0.000212005 -0.000132553 0.000212005 0.000796872
0.000527138 -5.62769e-05 -0.000130762 -5.62769e-05 0.000704763 0.000233196 -0.000130762 0.000233196 0.000742127
0.000554743 -4.64056e-05 -0.000139618 -4.64056e-05 0.00069804 0.000233928 -0.000139618 0.000233928 0.000703399
0.000579224 -2.49748e-05 -0.000150729 -2.49748e-05 0.000687914 0.000225125 -0.000150729 0.000225125 0.000673097
0.000581657 -1.1956e-05 -0.000149116 -1.1956e-05 0.000691255 0.000216483 -0.000149116 0.000216483 0.000644084
0.00058437 -8.04685e-06 -0.000135502 -8.04685e-06 0.000696873 0.000211238 -0.000135502 0.000211238 0.000609686
0.000590748 -5.0608e-06 -0.000124889 -5.0608e-06 0.000694799 0.000201145 -0.000124889 0.000201145 0.000578162
0.000598926 6.76372e-06 -0.000131558 6.76372e-06 0.000683513 0.000176362 -0.000131558 0.000176362 0.000567831
0.000600222 2.21271e-05 -0.000133253 2.21271e-05 0.000678228 0.000133344 -0.000133253 0.000133344 0.000553912
0.000603822 3.35126e-05 -0.000122928 3.35126e-05 0.000677361 8.75551e-05 -0.000122928 8.75551e-05 0.000537004
0.00079154 8.3583e-05 0.000126222 8.3583e-05 0.000919378 -6.85877e-05 0.000126222 -6.85877e-05 0.000546216
0.0007867 8.99867e-05 0.000121484 8.99867e-05 0.000907464 -7.5346e-05 0.000121484 -7.5346e-05 0.000485636
0.00075371 9.07299e-05 0.000108982 9.07299e-05 0.000911433 -6.76835e-05 0.000108982 -6.76835e-05 0.000468319
0.000722738 9.34944e-05 9.23852e-05 9.34944e-05 0.000908968 -6.13046e-05 9.23852e-05 -6.13046e-05 0.000463372
0.00070006 0.000101785 7.85427e-05 0.000101785 0.000896402 -5.68044e-05 7.85427e-05 -5.68044e-05 0.000459169
0.000674857 0.000106327 7.27185e-05 0.000106327 0.000892645 -5.52172e-05 7.27185e-05 -5.52172e-05 0.000456915
0.000642803 0.000110324 6.5001e-05 0.000110324 0.000895995 -5.04473e-05 6.5001e-05 -5.04473e-05 0.000453279
0.000604684 0.000114047 5.39726e-05 0.000114047 0.000904777 -4.23032e-05 5.39726e-05 -4.23032e-05 0.000447853
0.0005904 0.000117239 4.46901e-05 0.000117239 0.00092761 -4.33815e-05 4.46901e-05 -4.33815e-05 0.000436352
0.000589719 0.000117812 3.66749e-05 0.000117812 0.000952416 -4.86512e-05 3.66749e-05 -4.86512e-05 0.000421373
0.000588913 0.000115267 2.77763e-05 0.000115267 0.00097319 -5.18569e-05 2.77763e-05 -5.18569e-05 0.000404576
0.000585428 0.000105931 1.71271e-05 0.000105931 0.000972177 -5.20138e-05 1.71271e-05 -5.20138e-05 0.000396587
0.000578238 8.6769e-05 7.70547e-06 8.6769e-05 0.00095615 -5.10017e-05 7.70547e-06 -5.10017e-05 0.000401548
0.000571339 6.79074e-05 -7.36596e-07 6.79074e-05 0.000941361 -4.79866e-05 -7.36596e-07 -4.79866e-05 0.00040905
0.000566833 5.39933e-05 -1.81864e-06 5.39933e-05 0.000944482 -4.31563e-05 -1.81864e-06 -4.31563e-05 0.000422446
0.000564827 4.23567e-05 6.49959e-06 4.23567e-05 0.000964864 -4.01e-05 6.49959e-06 -4.01e-05 0.000443999
0.000564019 3.11919e-05 1.58265e-05 3.11919e-05 0.000985524 -3.97709e-05 1.58265e-05 -3.97709e-05 0.00046444
0.000567263 2.99787e-05 2.57971e-05 2.99787e-05 0.000989443 -3.67187e-05 2.57971e-05 -3.67187e-05 0.000476862
0.000573219 3.99327e-05 3.51905e-05 3.99327e-05 0.000971681 -2.80161e-05 3.51905e-05 -2.80161e-05 0.000481099
0.000575967 4.85404e-05 4.34398e-05 4.85404e-05 0.000953463 -1.90594e-05 4.34398e-05 -1.90594e-05 0.000487287
0.00056761 5.13056e-05 4.87162e-05 5.13056e-05 0.000937783 -8.88646e-06 4.87162e-05 -8.88646e-06 0.000495215
0.0005508 4.83518e-05 5.11339e-05 4.83518e-05 0.000927124 3.47851e-06 5.11339e-05 3.47851e-06 0.000503484
0.000536131 4.70099e-05 5.22216e-05 4.70099e-05 0.000920074 1.8682e-05 5.22216e-05 1.8682e-05 0.000513486
0.000532824 5.01457e-05 5.26471e-05 5.01457e-05 0.000930478 4.17164e-05 5.26471e-05 4.17164e-05 0.000536102
0.000542417 5.64501e-05 5.51794e-05 5.64501e-05 0.000960413 7.08465e-05 5.51794e-05 7.08465e-05 0.0005704
0.000553728 6.04954e-05 5.637e-05 6.04954e-05 0.00099436 9.96256e-05 5.637e-05 9.96256e-05 0.000606097
0.000564221 6.04413e-05 5.3118e-05 6.04413e-05 0.00101982 0.000123945 5.3118e-05 0.000123945 0.000648383
0.00056195 5.30223e-05 4.1225e-05 5.30223e-05 0.00100484 0.0001364 4.1225e-05 0.0001364 0.00069528
0.000557747 3.96621e-05 2.77792e-05 3.96621e-05 0.000992567 0.000148676 2.77792e-05 0.000148676 0.000737126
0.000547807 2.07503e-05 8.35478e-06 2.07503e-05 0.000971886 0.000159686 8.35478e-06 0.000159686 0.000767423
0.000548604 2.15643e-05 -7.34216e-06 2.15643e-05 0.000951852 0.000174748 -7.34216e-06 0.000174748 0.000790495
0.000537659 2.3913e-05 -2.28692e-05 2.3913e-05 0.00092941 0.000189747 -2.28692e-05 0.000189747 0.000803018
0.000513403 2.68405e-05 -3.87345e-05 2.68405e-05 0.000904856 0.000204961 -3.87345e-05 0.000204961 0.0008031
0.000478928 2.94526e-05 -5.0596e-05 2.94526e-05 0.000877349 0.000225015 -5.0596e-05 0.000225015 0.000788186
0.00046051 2.57609e-05 -4.81851e-05 2.57609e-05 0.000850825 0.000253542 -4.81851e-05 0.000253542 0.000767963
0.000472993 1.01545e-05 -4.8075e-05 1.01545e-05 0.000817572 0.000269021 -4.8075e-05 0.000269021 0.000748074
0.000487515 -9.01137e-06 -4.88778e-05 -9.01137e-06 0.000796695 0.000288741 -4.88778e-05 0.000288741 0.000720533
0.000498739 -3.03477e-05 -5.32435e-05 -3.03477e-05 0.000791905 0.000310018 -5.32435e-05 0.000310018 0.000688936
0.000481791 -4.62271e-05 -5.64436e-05 -4.62271e-05 0.000817463 0.000335962 -5.64436e-05 0.000335962 0.00066171
0.000479078 -3.51399e-05 -6.25008e-05 -3.51399e-05 0.000820457 0.000338311 -6.25008e-05 0.000338311 0.000648194
0.000491382 -2.26592e-05 -6.42208e-05 -2.26592e-05 0.000807014 0.000329176 -6.42208e-05 0.000329176 0.000632371
0.00051358 -1.44679e-05 -6.00539e-05 -1.44679e-05 0.000791468 0.00030601 -6.00539e-05 0.00030601 0.000597699
0.000524021 -7.26898e-06 -5.12455e-05 -7.26898e-06 0.000793468 0.000276067 -5.12455e-05 0.000276067 0.000540966
0.000509358 -4.42545e-06 -3.61029e-05 -4.42545e-06 0.000818022 0.000258677 -3.61029e-05 0.000258677 0.000475393
0.000497192 3.24515e-07 -2.34811e-05 3.24515e-07 0.000843162 0.000237869 -2.34811e-05 0.000237869 0.000422093
0.000511897 1.29589e-05 -2.43448e-05 1.29589e-05 0.000856121 0.000194066 -2.43448e-05 0.000194066 0.000419029
0.000510432 2.55392e-05 -1.80927e-05 2.55392e-05 0.00088267 0.00016404 -1.80927e-05 0.00016404 0.000412436
0.000497496 3.76359e-05 -5.47814e-06 3.76359e-05 0.000918975 0.000145347 -5.47814e-06 0.000145347 0.000400719
0.000497935 4.13569e-05 7.36809e-06 4.13569e-05 0.000919095 0.000112219 7.36809e-06 0.000112219 0.000415596
0.000498321 4.26218e-05 2.03134e-05 4.26218e-05 0.000913197 7.71451e-05 2.03134e-05 7.71451e-05 0.000434531
0.000491246 4.43901e-05 3.51484e-05 4.43901e-05 0.000913726 4.61377e-05 3.51484e-05 4.61377e-05 0.000447517
0.000506622 3.89193e-05 5.29721e-05 3.89193e-05 0.000912896 1.86057e-05 5.29721e-05 1.86057e-05 0.000460637
0.000533883 2.59863e-05 7.56139e-05 2.59863e-05 0.000913479 -7.53188e-06 7.56139e-05 -7.53188e-06 0.000477509
0.000558083 1.11831e-05 0.000101266 1.11831e-05 0.000915948 -3.34227e-05 0.000101266 -3.34227e-05 0.0004957